% Model:              robot.mph
% Version:            COMSOL 5.5.0.359
% Date:               Mar 2 2024, 14:59
% Table:              Evaluation Group 1 - 
% ws (m/s)                                        Reynolds Number (1)                               Drag (N)                                          Drag Coefficient (1)
0.2                                               6.849315068493152E-8                              0.29820251850026014                               7.607339604840949
0.30000000000000004                               1.0273972602739728E-7                             0.6488349802920242                                7.356533804097227
0.4                                               1.3698630136986304E-7                             1.122381581686129                                 7.158170478444056
0.5                                               1.7123287671232878E-7                             1.7133529159505168                                6.993399014941559
0.6000000000000001                                2.0547945205479457E-7                             2.4176712922370607                                6.852929145609765
0.7                                               2.3972602739726023E-7                             3.231890414249381                                 6.730417964240555
0.8                                               2.739726027397261E-7                              4.153813827747466                                 6.6229052578683465
