% Model:              robot.mph
% Version:            COMSOL 5.5.0.359
% Date:               Mar 2 2024, 16:42
% Table:              Evaluation Group 1 - 
% ws (m/s)               Reynolds Number (1)      Drag (N)                 Drag Coefficient (1)
0.2                      6.849315068493152E-8     0.12033257272998776      3.0697619553486177
0.30000000000000004      1.0273972602739728E-7    0.2585258324037588       2.9311829403135015
0.4                      1.3698630136986304E-7    0.4429605359693395       2.8250526233048823
0.5                      1.7123287671232878E-7    0.6710282630784326       2.738938574956255
0.6000000000000001       2.0547945205479457E-7    0.9408355940637717       2.666814005894434
0.7                      2.3972602739726023E-7    1.2508248866423672       2.604845216923046
0.8                      2.739726027397261E-7     1.5999981645674057       2.551061914693352
