% Model:              nose2.mph
% Version:            COMSOL 5.5.0.359
% Date:               Mar 2 2024, 10:42
% Table:              Evaluation Group 1 - 
% ws (m/s)               Reynolds Number (1)      Drag (N)                 Drag Coefficient (1)
5                        1.7123287671232877E-6    2.0650718453729366E-4    0.006986557948991625
15                       5.136986301369863E-6     0.0011897136834299877    0.0044732029788897305
25                       8.561643835616438E-6     0.002933564736939817     0.003972540849537899
35                       1.1986301369863013E-5    0.005438621431433072     0.0037601426699353548
45                       1.541095890410959E-5     0.008704809691010887     0.003644096877009884
