% Model:              nose2.mph
% Version:            COMSOL 5.5.0.359
% Date:               Mar 2 2024, 10:58
% Table:              Evaluation Group 1 - 
% ws (m/s)               Reynolds Number (1)      Drag (N)                 Drag Coefficient (1)
5                        1.7123287671232877E-6    0.01667705037789234      0.5641933319150368
15                       5.136986301369863E-6     0.14919530994852678      0.5607107359186544
25                       8.561643835616438E-6     0.41392395569366947      0.559811255962693
35                       1.1986301369863013E-5    0.8108827691593485       0.5592109125645118
45                       1.541095890410959E-5     1.3400657684275497       0.5586315322338872
