% Model:              nose1.mph
% Version:            COMSOL 5.5.0.359
% Date:               Mar 2 2024, 10:41
% Table:              Evaluation Group 1 - 
% ws (m/s)                                        Reynolds Number (1)                               Drag (N)                                          Drag Coefficient (1)
5                                                 1.7123287671232877E-6                             1.117880372060602E-4                              0.0037819818772692427
15                                                5.136986301369863E-6                              4.035338571954962E-4                              0.001517042981049559
25                                                8.561643835616438E-6                              7.877679550060628E-4                              0.0010663061708170102
35                                                1.1986301369863013E-5                             0.001264072183451941                              8.731408862015832E-4
45                                                1.541095890410959E-5                              0.0018323237265683327                             7.658248530765636E-4
