% Model:              nose1.mph
% Version:            COMSOL 5.5.0.359
% Date:               Mar 6 2024, 13:57
% Table:              Evaluation Group 1 - 
% ws (m/s)               Reynolds Number (1)      Drag (N)                 Drag Coefficient (1)
5                        1.7123287671232877E-6    0.023228274729640154     0.785814056386429
15                       5.136986301369863E-6     0.2081204785816024       0.7820701305766585
25                       8.561643835616438E-6     0.5776178340779528       0.7809352827886835
35                       1.1986301369863013E-5    1.1317043893318235       0.7799439848066165
45                       1.541095890410959E-5     1.8703875183108696       0.7788551521811541
