% Model:              nose3.mph
% Version:            COMSOL 5.5.0.359
% Date:               Mar 2 2024, 11:00
% Table:              Evaluation Group 1 - 
% ws (m/s)               Reynolds Number (1)      Drag (N)                 Drag Coefficient (1)
5                        1.7123287671232877E-6    0.006666035276813842     0.22551582791866576
15                       5.136986301369863E-6     0.05908819812772478      0.2220699958143574
25                       8.561643835616438E-6     0.16364296728130165      0.2213262321566054
35                       1.1986301369863013E-5    0.32032579792772403      0.22092105163677475
45                       1.541095890410959E-5     0.5291309464922299       0.22060081347240623
