% Model:              nose3.mph
% Version:            COMSOL 5.5.0.359
% Date:               Mar 2 2024, 10:22
% Table:              Evaluation Group 1 - 
% ws (m/s)               Reynolds Number (1)      Drag (N)                 Drag Coefficient (1)
5                        1.7123287671232877E-6    0.006667159994377608     0.22555387732249796
15                       5.136986301369863E-6     0.059098296002423396     0.2221079426259613
25                       8.561643835616438E-6     0.16367105625433934      0.22136421177439866
35                       1.1986301369863013E-5    0.32038093956690583      0.22095906086138245
45                       1.541095890410959E-5     0.5292220419488584       0.22063875821501513
